 vasp.5.3.5 31Mar14 (build Dec 15 2021 16:28:04) complex                        
  
 executed on             LinuxIFC date 2022.11.07  14:49:06
 running on    4 total cores
 distrk:  each k-point on    4 cores,    1 groups
 distr:  one band on NCORES_PER_BAND=   1 cores,    4 groups


--------------------------------------------------------------------------------------------------------


 INCAR:
 POTCAR:   PAW_PBE Mo 08Apr2002                   
 POTCAR:    PAW_PBE S 17Jan2003                   
 POTCAR:   PAW_PBE Mo 08Apr2002                   
   VRHFIN =Mo: 4p5s4d                                                           
   LEXCH  = PE                                                                  
   EATOM  =   217.5180 eV,   15.9871 Ry                                         
                                                                                
   TITEL  = PAW_PBE Mo 08Apr2002                                                
   LULTRA =        F    use ultrasoft PP ?                                      
   IUNSCR =        1    unscreen: 0-lin 1-nonlin 2-no                           
   RPACOR =    2.200    partial core radius                                     
   POMASS =   95.940; ZVAL   =    6.000    mass and valenz                      
   RCORE  =    2.750    outmost cutoff radius                                   
   RWIGS  =    2.750; RWIGS  =    1.455    wigner-seitz radius (au A)           
   ENMAX  =  224.584; ENMIN  =  168.438 eV                                      
   RCLOC  =    2.111    cutoff for local pot                                    
   LCOR   =        T    correct aug charges                                     
   LPAW   =        T    paw PP                                                  
   EAUG   =  345.278                                                            
   DEXC   =    -.088                                                            
   RMAX   =    3.077    core radius for proj-oper                               
   RAUG   =    1.300    factor for augmentation sphere                          
   RDEP   =    2.815    radius for radial grids                                 
   QCUT   =   -4.063; QGAM   =    8.126    optimization parameters              
                                                                                
   Description                                                                  
     l     E      TYP  RCUT    TYP  RCUT                                        
     2   .000     23  2.500                                                     
     2   .000     23  2.500                                                     
     0   .000     23  2.600                                                     
     0  1.000     23  2.600                                                     
     1   .400     23  2.750                                                     
     1  2.000     23  2.750                                                     
     3   .000      7   .000                                                     
  local pseudopotential read in
  partial core-charges read in
  atomic valenz-charges read in
  non local Contribution for L=           2  read in
    real space projection operators read in
  non local Contribution for L=           2  read in
    real space projection operators read in
  non local Contribution for L=           0  read in
    real space projection operators read in
  non local Contribution for L=           0  read in
    real space projection operators read in
  non local Contribution for L=           1  read in
    real space projection operators read in
  non local Contribution for L=           1  read in
    real space projection operators read in
    PAW grid and wavefunctions read in
 
   number of l-projection  operators is LMAX  =           6
   number of lm-projection operators is LMMAX =          18
 
 POTCAR:    PAW_PBE S 17Jan2003                   
   VRHFIN =S : s2p4                                                             
   LEXCH  = PE                                                                  
   EATOM  =   276.8230 eV,   20.3459 Ry                                         
                                                                                
   TITEL  = PAW_PBE S 17Jan2003                                                 
   LULTRA =        F    use ultrasoft PP ?                                      
   IUNSCR =        1    unscreen: 0-lin 1-nonlin 2-no                           
   RPACOR =    1.500    partial core radius                                     
   POMASS =   32.066; ZVAL   =    6.000    mass and valenz                      
   RCORE  =    1.900    outmost cutoff radius                                   
   RWIGS  =    2.200; RWIGS  =    1.164    wigner-seitz radius (au A)           
   ENMAX  =  280.000; ENMIN  =  194.016 eV                                      
   ICORE  =        2    local potential                                         
   LCOR   =        T    correct aug charges                                     
   LPAW   =        T    paw PP                                                  
   EAUG   =  335.092                                                            
   DEXC   =     .000                                                            
   RMAX   =    2.867    core radius for proj-oper                               
   RAUG   =    1.300    factor for augmentation sphere                          
   RDEP   =    1.954    radius for radial grids                                 
   QCUT   =   -4.360; QGAM   =    8.721    optimization parameters              
                                                                                
   Description                                                                  
     l     E      TYP  RCUT    TYP  RCUT                                        
     0   .000     23  1.900                                                     
     0   .000     23  1.900                                                     
     1   .000     23  1.900                                                     
     1   .000     23  1.900                                                     
     2   .000     23  1.900                                                     
  local pseudopotential read in
  partial core-charges read in
  atomic valenz-charges read in
  non local Contribution for L=           0  read in
    real space projection operators read in
  non local Contribution for L=           0  read in
    real space projection operators read in
  non local Contribution for L=           1  read in
    real space projection operators read in
  non local Contribution for L=           1  read in
    real space projection operators read in
    PAW grid and wavefunctions read in
 
   number of l-projection  operators is LMAX  =           4
   number of lm-projection operators is LMMAX =           8
 

 ----------------------------------------------------------------------------- 
|                                                                             |
|  ADVICE TO THIS USER RUNNING 'VASP/VAMP'   (HEAR YOUR MASTER'S VOICE ...):  |
|                                                                             |
|      You have a (more or less) 'small supercell' and for smaller cells      |
|      it is recommended  to use the reciprocal-space projection scheme!      |
|      The real space optimization is not  efficient for small cells and it   |
|      is also less accurate ...                                              |
|      Therefore set LREAL=.FALSE. in the  INCAR file                         |
|                                                                             |
 ----------------------------------------------------------------------------- 

 Optimization of the real space projectors (new method)

 maximal supplied QI-value         = 13.61
 optimisation between [QCUT,QGAM] = [ 10.75, 21.63] = [ 32.35,131.06] Ry 
 Optimized for a Real-space Cutoff    1.65 Angstroem

   l    n(q)    QCUT    max X(q) W(low)/X(q) W(high)/X(q)  e(spline) 
   2     10    10.749     3.671    0.88E-05    0.15E-04    0.45E-07
   2     10    10.749    29.382    0.28E-03    0.26E-03    0.46E-06
   0     11    10.749    26.379    0.16E-04    0.26E-05    0.13E-07
   0     11    10.749    49.709    0.28E-04    0.33E-04    0.71E-07
   1     10    10.749     7.852    0.25E-04    0.36E-05    0.52E-07
   1     10    10.749    10.693    0.11E-03    0.50E-05    0.16E-06
 Optimization of the real space projectors (new method)

 maximal supplied QI-value         = 19.84
 optimisation between [QCUT,QGAM] = [ 10.71, 21.63] = [ 32.15,130.99] Ry 
 Optimized for a Real-space Cutoff    1.19 Angstroem

   l    n(q)    QCUT    max X(q) W(low)/X(q) W(high)/X(q)  e(spline) 
   0      8    10.715     5.487    0.15E-04    0.93E-05    0.46E-08
   0      8    10.715    85.627    0.41E-03    0.53E-04    0.65E-07
   1      7    10.715     3.530    0.38E-04    0.32E-04    0.16E-07
   1      7    10.715    42.714    0.19E-03    0.58E-03    0.67E-07
 PAW_PBE Mo 08Apr2002                   :
 energy of atom  1       EATOM= -217.5180
 kinetic energy error for atom=    0.0023 (will be added to EATOM!!)
  PAW_PBE S 17Jan2003                   :
 energy of atom  2       EATOM= -276.8230
 kinetic energy error for atom=    0.0033 (will be added to EATOM!!)
 
 
 POSCAR: 1_layer-MoS2                            
  positions in direct lattice
  No initial velocities read in
 exchange correlation table for  LEXCH =        8
   RHO(1)=    0.500       N(1)  =     2000
   RHO(2)=  100.500       N(2)  =     4000

 VTST: version 3.2, (02/03/18)

 CHAIN: initializing optimizer
 
 OPT: Using VASP Conjugate-Gradient optimizer
 CHAIN: Read ICHAIN            0
 
 POSCAR: 1_layer-MoS2                            
  positions in direct lattice
  No initial velocities read in
 


--------------------------------------------------------------------------------------------------------


 ion  position               nearest neighbor table
   1  0.667  0.333  0.446-   2 2.42   2 2.42   3 2.42   3 2.42   2 2.42   3 2.42
   2  0.333  0.667  0.509-   1 2.42   1 2.42   1 2.42
   3  0.333  0.667  0.384-   1 2.42   1 2.42   1 2.42
 
  LATTYP: Found a hexagonal cell.
 ALAT       =     3.1902999878
 C/A-ratio  =     7.8362536739
  
  Lattice vectors:
  
 A1 = (   3.1902999878,   0.0000000000,   0.0000000000)
 A2 = (  -1.5951499939,   2.7628808351,   0.0000000000)
 A3 = (   0.0000000000,   0.0000000000,  25.0000000000)


Analysis of symmetry for initial positions (statically):
=====================================================================
 Subroutine PRICEL returns:
 Original cell was already a primitive cell.
 

 Routine SETGRP: Setting up the symmetry group for a 
 hexagonal supercell.


 Subroutine GETGRP returns: Found  4 space group operations
 (whereof  2 operations were pure point group operations)
 out of a pool of 24 trial point group operations.


The static configuration has the point symmetry C_1h.
 The point group associated with its full space group is C_2v.


Analysis of symmetry for dynamics (positions and initial velocities):
=====================================================================
 Subroutine PRICEL returns:
 Original cell was already a primitive cell.
 

 Routine SETGRP: Setting up the symmetry group for a 
 hexagonal supercell.


 Subroutine GETGRP returns: Found  4 space group operations
 (whereof  2 operations were pure point group operations)
 out of a pool of 24 trial point group operations.


The dynamic configuration has the point symmetry C_1h.
 The point group associated with its full space group is C_2v.
 
 
 KPOINTS: Automatic generation                    

Automatic generation of k-mesh.
Space group operators:
 irot       det(A)        alpha          n_x          n_y          n_z        tau_x        tau_y        tau_z
    1     1.000000     0.000000     1.000000     0.000000     0.000000     0.000000     0.000000     0.000000
    2    -1.000000   180.000000    -0.500000    -0.866025     0.000000     0.000000     0.000000     0.000000
    3    -1.000000   180.000000     0.000000     0.000000     1.000000     0.000000     0.000000     0.892740
    4     1.000000   180.000000     0.866025    -0.500000     0.000000     0.000000     0.000000     0.892740
 
 Subroutine IBZKPT returns following result:
 ===========================================
 
 Found     64 irreducible k-points:
 
 Following reciprocal coordinates:
            Coordinates               Weight
  0.000000  0.000000  0.000000      1.000000
  0.066667  0.000000  0.000000      4.000000
  0.133333 -0.000000  0.000000      4.000000
  0.200000 -0.000000  0.000000      4.000000
  0.266667  0.000000  0.000000      4.000000
  0.333333  0.000000  0.000000      4.000000
  0.400000 -0.000000  0.000000      4.000000
  0.466667  0.000000  0.000000      4.000000
  0.066667  0.066667  0.000000      2.000000
  0.133333  0.066667  0.000000      4.000000
  0.200000  0.066667  0.000000      4.000000
  0.266667  0.066667  0.000000      4.000000
  0.333333  0.066667  0.000000      4.000000
  0.400000  0.066667  0.000000      4.000000
  0.466667  0.066667  0.000000      4.000000
 -0.466667  0.066667  0.000000      4.000000
 -0.400000  0.066667  0.000000      4.000000
 -0.333333  0.066667  0.000000      4.000000
 -0.266667  0.066667  0.000000      4.000000
 -0.200000  0.066667  0.000000      4.000000
 -0.133333  0.066667  0.000000      4.000000
 -0.066667  0.066667  0.000000      2.000000
  0.133333  0.133333  0.000000      2.000000
  0.200000  0.133333  0.000000      4.000000
  0.266667  0.133333  0.000000      4.000000
  0.333333  0.133333  0.000000      4.000000
  0.400000  0.133333  0.000000      4.000000
  0.466667  0.133333  0.000000      4.000000
 -0.466667  0.133333  0.000000      4.000000
 -0.400000  0.133333  0.000000      4.000000
 -0.333333  0.133333  0.000000      4.000000
 -0.266667  0.133333  0.000000      4.000000
 -0.200000  0.133333  0.000000      4.000000
 -0.133333  0.133333  0.000000      2.000000
  0.200000  0.200000  0.000000      2.000000
  0.266667  0.200000  0.000000      4.000000
  0.333333  0.200000  0.000000      4.000000
  0.400000  0.200000  0.000000      4.000000
  0.466667  0.200000  0.000000      4.000000
 -0.466667  0.200000  0.000000      4.000000
 -0.400000  0.200000  0.000000      4.000000
 -0.333333  0.200000  0.000000      4.000000
 -0.266667  0.200000  0.000000      4.000000
 -0.200000  0.200000  0.000000      2.000000
  0.266667  0.266667  0.000000      2.000000
  0.333333  0.266667  0.000000      4.000000
  0.400000  0.266667  0.000000      4.000000
  0.466667  0.266667  0.000000      4.000000
 -0.466667  0.266667  0.000000      4.000000
 -0.400000  0.266667  0.000000      4.000000
 -0.333333  0.266667  0.000000      4.000000
 -0.266667  0.266667  0.000000      2.000000
  0.333333  0.333333  0.000000      2.000000
  0.400000  0.333333  0.000000      4.000000
  0.466667  0.333333  0.000000      4.000000
 -0.466667  0.333333  0.000000      4.000000
 -0.400000  0.333333  0.000000      4.000000
 -0.333333  0.333333  0.000000      2.000000
  0.400000  0.400000  0.000000      2.000000
  0.466667  0.400000  0.000000      4.000000
 -0.466667  0.400000  0.000000      4.000000
 -0.400000  0.400000  0.000000      2.000000
  0.466667  0.466667  0.000000      2.000000
 -0.466667  0.466667  0.000000      2.000000
 
 Following cartesian coordinates:
            Coordinates               Weight
  0.000000  0.000000  0.000000      1.000000
  0.020897  0.012065  0.000000      4.000000
  0.041793  0.024129  0.000000      4.000000
  0.062690  0.036194  0.000000      4.000000
  0.083587  0.048259  0.000000      4.000000
  0.104483  0.060324  0.000000      4.000000
  0.125380  0.072388  0.000000      4.000000
  0.146277  0.084453  0.000000      4.000000
  0.020897  0.036194  0.000000      2.000000
  0.041793  0.048259  0.000000      4.000000
  0.062690  0.060324  0.000000      4.000000
  0.083587  0.072388  0.000000      4.000000
  0.104483  0.084453  0.000000      4.000000
  0.125380  0.096518  0.000000      4.000000
  0.146277  0.108582  0.000000      4.000000
 -0.146277 -0.060324  0.000000      4.000000
 -0.125380 -0.048259  0.000000      4.000000
 -0.104483 -0.036194  0.000000      4.000000
 -0.083587 -0.024129  0.000000      4.000000
 -0.062690 -0.012065  0.000000      4.000000
 -0.041793  0.000000  0.000000      4.000000
 -0.020897  0.012065  0.000000      2.000000
  0.041793  0.072388  0.000000      2.000000
  0.062690  0.084453  0.000000      4.000000
  0.083587  0.096518  0.000000      4.000000
  0.104483  0.108582  0.000000      4.000000
  0.125380  0.120647  0.000000      4.000000
  0.146277  0.132712  0.000000      4.000000
 -0.146277 -0.036194  0.000000      4.000000
 -0.125380 -0.024129  0.000000      4.000000
 -0.104483 -0.012065  0.000000      4.000000
 -0.083587  0.000000  0.000000      4.000000
 -0.062690  0.012065  0.000000      4.000000
 -0.041793  0.024129  0.000000      2.000000
  0.062690  0.108582  0.000000      2.000000
  0.083587  0.120647  0.000000      4.000000
  0.104483  0.132712  0.000000      4.000000
  0.125380  0.144776  0.000000      4.000000
  0.146277  0.156841  0.000000      4.000000
 -0.146277 -0.012065  0.000000      4.000000
 -0.125380  0.000000  0.000000      4.000000
 -0.104483  0.012065  0.000000      4.000000
 -0.083587  0.024129  0.000000      4.000000
 -0.062690  0.036194  0.000000      2.000000
  0.083587  0.144776  0.000000      2.000000
  0.104483  0.156841  0.000000      4.000000
  0.125380  0.168906  0.000000      4.000000
  0.146277  0.180971  0.000000      4.000000
 -0.146277  0.012065  0.000000      4.000000
 -0.125380  0.024129  0.000000      4.000000
 -0.104483  0.036194  0.000000      4.000000
 -0.083587  0.048259  0.000000      2.000000
  0.104483  0.180971  0.000000      2.000000
  0.125380  0.193035  0.000000      4.000000
  0.146277  0.205100  0.000000      4.000000
 -0.146277  0.036194  0.000000      4.000000
 -0.125380  0.048259  0.000000      4.000000
 -0.104483  0.060324  0.000000      2.000000
  0.125380  0.217165  0.000000      2.000000
  0.146277  0.229229  0.000000      4.000000
 -0.146277  0.060324  0.000000      4.000000
 -0.125380  0.072388  0.000000      2.000000
  0.146277  0.253359  0.000000      2.000000
 -0.146277  0.084453  0.000000      2.000000
 


--------------------------------------------------------------------------------------------------------




 Dimension of arrays:
   k-points           NKPTS =     64   k-points in BZ     NKDIM =     64   number of bands    NBANDS=     16
   number of dos      NEDOS =    301   number of ions     NIONS =      3
   non local maximal  LDIM  =      6   non local SUM 2l+1 LMDIM =     18
   total plane-waves  NPLWV =  45360
   max r-space proj   IRMAX =   3914   max aug-charges    IRDMAX=  13414
   dimension x,y,z NGX =    18 NGY =   18 NGZ =  140
   dimension x,y,z NGXF=    36 NGYF=   36 NGZF=  280
   support grid    NGXF=    36 NGYF=   36 NGZF=  280
   ions per type =               1   2
 NGX,Y,Z   is equivalent  to a cutoff of   9.38,  9.38,  9.31 a.u.
 NGXF,Y,Z  is equivalent  to a cutoff of  18.76, 18.76, 18.62 a.u.


 I would recommend the setting:
   dimension x,y,z NGX =    17 NGY =   17 NGZ =  130
 SYSTEM =  opt                                     
 POSCAR =  1_layer-MoS2                            

 Startparameter for this run:
   NWRITE =      2    write-flag & timer
   PREC   = normal    normal or accurate (medium, high low for compatibility)
   ISTART =      0    job   : 0-new  1-cont  2-samecut
   ICHARG =      2    charge: 1-file 2-atom 10-const
   ISPIN  =      1    spin polarized calculation?
   LNONCOLLINEAR =      F non collinear calculations
   LSORBIT =      F    spin-orbit coupling
   INIWAV =      1    electr: 0-lowe 1-rand  2-diag
   LASPH  =      F    aspherical Exc in radial PAW
   METAGGA=      F    non-selfconsistent MetaGGA calc.

 Electronic Relaxation 1
   ENCUT  =  450.0 eV  33.07 Ry    5.75 a.u.   5.52  5.52 43.24*2*pi/ulx,y,z
   ENINI  =  450.0     initial cutoff
   ENAUG  =  345.3 eV  augmentation charge cutoff
   NELM   =    150;   NELMIN=  5; NELMDL= -5     # of ELM steps 
   EDIFF  = 0.1E-03   stopping-criterion for ELM
   LREAL  =      T    real-space projection
   NLSPLINE    = F    spline interpolate recip. space projectors
   LCOMPAT=      F    compatible to vasp.4.4
   GGA_COMPAT  = T    GGA compatible to vasp.4.4-vasp.4.6
   LMAXPAW     = -100 max onsite density
   LMAXMIX     =    2 max onsite mixed and CHGCAR
   VOSKOWN=      0    Vosko Wilk Nusair interpolation
   ROPT   =   -0.00050  -0.00050
 Ionic relaxation
   EDIFFG = -.1E-01   stopping-criterion for IOM
   NSW    =    600    number of steps for IOM
   NBLOCK =      1;   KBLOCK =    600    inner block; outer block 
   IBRION =      2    ionic relax: 0-MD 1-quasi-New 2-CG
   NFREE  =      1    steps in history (QN), initial steepest desc. (CG)
   ISIF   =      2    stress and relaxation
   IWAVPR =     11    prediction:  0-non 1-charg 2-wave 3-comb
   ISYM   =      2    0-nonsym 1-usesym 2-fastsym
   LCORR  =      T    Harris-Foulkes like correction to forces

   POTIM  = 0.3000    time-step for ionic-motion
   TEIN   =    0.0    initial temperature
   TEBEG  =    0.0;   TEEND  =   0.0 temperature during run
   SMASS  =  -3.00    Nose mass-parameter (am)
   estimated Nose-frequenzy (Omega)   =  0.10E-29 period in steps =****** mass=  -0.233E-27a.u.
   SCALEE = 1.0000    scale energy and forces
   NPACO  =    256;   APACO  = 16.0  distance and # of slots for P.C.
   PSTRESS=    0.0 pullay stress

  Mass of Ions in am
   POMASS =  95.94 32.07
  Ionic Valenz
   ZVAL   =   6.00  6.00
  Atomic Wigner-Seitz radii
   RWIGS  =  -1.00 -1.00
  virtual crystal weights 
   VCA    =   1.00  1.00
   NELECT =      18.0000    total number of electrons
   NUPDOWN=      -1.0000    fix difference up-down

 DOS related values:
   EMIN   =  10.00;   EMAX   =-10.00  energy-range for DOS
   EFERMI =   0.00
   ISMEAR =     0;   SIGMA  =   0.10  broadening in eV -4-tet -1-fermi 0-gaus

 Electronic relaxation 2 (details)
   IALGO  =     38    algorithm
   LDIAG  =      T    sub-space diagonalisation (order eigenvalues)
   LSUBROT=      F    optimize rotation matrix (better conditioning)
   TURBO    =      0    0=normal 1=particle mesh
   IRESTART =      0    0=no restart 2=restart with 2 vectors
   NREBOOT  =      0    no. of reboots
   NMIN     =      0    reboot dimension
   EREF     =   0.00    reference energy to select bands
   IMIX   =      4    mixing-type and parameters
     AMIX     =   0.40;   BMIX     =  1.00
     AMIX_MAG =   1.60;   BMIX_MAG =  1.00
     AMIN     =   0.10
     WC   =   100.;   INIMIX=   1;  MIXPRE=   1;  MAXMIX= -45

 Intra band minimization:
   WEIMIN = 0.0010     energy-eigenvalue tresh-hold
   EBREAK =  0.16E-05  absolut break condition
   DEPER  =   0.30     relativ break condition  

   TIME   =   0.40     timestep for ELM

  volume/ion in A,a.u.               =      73.45       495.69
  Fermi-wavevector in a.u.,A,eV,Ry     =   0.710321  1.342311  6.864893  0.504555
  Thomas-Fermi vector in A             =   1.797137
 
 Write flags
   LWAVE  =      F    write WAVECAR
   LCHARG =      F    write CHGCAR
   LVTOT  =      F    write LOCPOT, total local potential
   LVHAR  =      F    write LOCPOT, Hartree potential only
   LELF   =      F    write electronic localiz. function (ELF)
   LORBIT =      0    0 simple, 1 ext, 2 COOP (PROOUT)


 Dipole corrections
   LMONO  =      F    monopole corrections only (constant potential shift)
   LDIPOL =      F    correct potential (dipole corrections)
   IDIPOL =      0    1-x, 2-y, 3-z, 4-all directions 
   EPSILON=  1.0000000 bulk dielectric constant

 Exchange correlation treatment:
   GGA     =    --    GGA type
   LEXCH   =     8    internal setting for exchange type
   VOSKOWN=      0    Vosko Wilk Nusair interpolation
   LHFCALC =     F    Hartree Fock is set to
   LHFONE  =     F    Hartree Fock one center treatment
   AEXX    =    0.0000 exact exchange contribution

 Linear response parameters
   LEPSILON=     F    determine dielectric tensor
   LRPA    =     F    only Hartree local field effects (RPA)
   LNABLA  =     F    use nabla operator in PAW spheres
   LVEL    =     F    velocity operator in full k-point grid
   LINTERFAST=   F  fast interpolation
   KINTER  =     0    interpolate to denser k-point grid
   CSHIFT  =0.1000    complex shift for real part using Kramers Kronig
   OMEGAMAX=  -1.0    maximum frequency
   DEG_THRESHOLD= 0.2000000E-02 threshold for treating states as degnerate
   RTIME   =    0.100 relaxation time in fs

 Orbital magnetization related:
   ORBITALMAG=     F  switch on orbital magnetization
   LCHIMAG   =     F  perturbation theory with respect to B field
   DQ        =  0.001000  dq finite difference perturbation B field



--------------------------------------------------------------------------------------------------------


 conjugate gradient relaxation of ions
 charge density and potential will be updated during run
 non-spin polarized calculation
 Variant of blocked Davidson
 Davidson routine will perform the subspace rotation
 perform sub-space diagonalisation
    after iterative eigenvector-optimisation
 modified Broyden-mixing scheme, WC =      100.0
 initial mixing is a Kerker type mixing with AMIX =  0.4000 and BMIX =      1.0000
 Hartree-type preconditioning will be used
 using additional bands            7
 real space projection scheme for non local part
 use partial core corrections
 calculate Harris-corrections to forces 
   (improved forces if not selfconsistent)
 use gradient corrections 
 use of overlap-Matrix (Vanderbilt PP)
 Gauss-broadening in eV      SIGMA  =   0.10


--------------------------------------------------------------------------------------------------------


  energy-cutoff  :      450.00
  volume of cell :      220.36
      direct lattice vectors                 reciprocal lattice vectors
     3.190299988  0.000000000  0.000000000     0.313450147  0.180970527  0.000000000
    -1.595149994  2.762880835  0.000000000     0.000000000  0.361941053  0.000000000
     0.000000000  0.000000000 25.000000000     0.000000000  0.000000000  0.040000000

  length of vectors
     3.190299988  3.190299988 25.000000000     0.361941053  0.361941053  0.040000000


 
 k-points in units of 2pi/SCALE and weight: Automatic generation                    
   0.00000000  0.00000000  0.00000000       0.004
   0.02089668  0.01206470  0.00000000       0.018
   0.04179335  0.02412940  0.00000000       0.018
   0.06269003  0.03619411  0.00000000       0.018
   0.08358671  0.04825881  0.00000000       0.018
   0.10448338  0.06032351  0.00000000       0.018
   0.12538006  0.07238821  0.00000000       0.018
   0.14627674  0.08445291  0.00000000       0.018
   0.02089668  0.03619411  0.00000000       0.009
   0.04179335  0.04825881  0.00000000       0.018
   0.06269003  0.06032351  0.00000000       0.018
   0.08358671  0.07238821  0.00000000       0.018
   0.10448338  0.08445291  0.00000000       0.018
   0.12538006  0.09651761  0.00000000       0.018
   0.14627674  0.10858232  0.00000000       0.018
  -0.14627674 -0.06032351  0.00000000       0.018
  -0.12538006 -0.04825881  0.00000000       0.018
  -0.10448338 -0.03619411  0.00000000       0.018
  -0.08358671 -0.02412940  0.00000000       0.018
  -0.06269003 -0.01206470  0.00000000       0.018
  -0.04179335  0.00000000  0.00000000       0.018
  -0.02089668  0.01206470  0.00000000       0.009
   0.04179335  0.07238821  0.00000000       0.009
   0.06269003  0.08445291  0.00000000       0.018
   0.08358671  0.09651761  0.00000000       0.018
   0.10448338  0.10858232  0.00000000       0.018
   0.12538006  0.12064702  0.00000000       0.018
   0.14627674  0.13271172  0.00000000       0.018
  -0.14627674 -0.03619411  0.00000000       0.018
  -0.12538006 -0.02412940  0.00000000       0.018
  -0.10448338 -0.01206470  0.00000000       0.018
  -0.08358671  0.00000000  0.00000000       0.018
  -0.06269003  0.01206470  0.00000000       0.018
  -0.04179335  0.02412940  0.00000000       0.009
   0.06269003  0.10858232  0.00000000       0.009
   0.08358671  0.12064702  0.00000000       0.018
   0.10448338  0.13271172  0.00000000       0.018
   0.12538006  0.14477642  0.00000000       0.018
   0.14627674  0.15684112  0.00000000       0.018
  -0.14627674 -0.01206470  0.00000000       0.018
  -0.12538006  0.00000000  0.00000000       0.018
  -0.10448338  0.01206470  0.00000000       0.018
  -0.08358671  0.02412940  0.00000000       0.018
  -0.06269003  0.03619411  0.00000000       0.009
   0.08358671  0.14477642  0.00000000       0.009
   0.10448338  0.15684112  0.00000000       0.018
   0.12538006  0.16890582  0.00000000       0.018
   0.14627674  0.18097053  0.00000000       0.018
  -0.14627674  0.01206470  0.00000000       0.018
  -0.12538006  0.02412940  0.00000000       0.018
  -0.10448338  0.03619411  0.00000000       0.018
  -0.08358671  0.04825881  0.00000000       0.009
   0.10448338  0.18097053  0.00000000       0.009
   0.12538006  0.19303523  0.00000000       0.018
   0.14627674  0.20509993  0.00000000       0.018
  -0.14627674  0.03619411  0.00000000       0.018
  -0.12538006  0.04825881  0.00000000       0.018
  -0.10448338  0.06032351  0.00000000       0.009
   0.12538006  0.21716463  0.00000000       0.009
   0.14627674  0.22922933  0.00000000       0.018
  -0.14627674  0.06032351  0.00000000       0.018
  -0.12538006  0.07238821  0.00000000       0.009
   0.14627674  0.25335874  0.00000000       0.009
  -0.14627674  0.08445291  0.00000000       0.009
 
 k-points in reciprocal lattice and weights: Automatic generation                    
   0.00000000  0.00000000  0.00000000       0.004
   0.06666667  0.00000000  0.00000000       0.018
   0.13333333 -0.00000000  0.00000000       0.018
   0.20000000 -0.00000000  0.00000000       0.018
   0.26666667  0.00000000  0.00000000       0.018
   0.33333333  0.00000000  0.00000000       0.018
   0.40000000 -0.00000000  0.00000000       0.018
   0.46666667  0.00000000  0.00000000       0.018
   0.06666667  0.06666667  0.00000000       0.009
   0.13333333  0.06666667  0.00000000       0.018
   0.20000000  0.06666667  0.00000000       0.018
   0.26666667  0.06666667  0.00000000       0.018
   0.33333333  0.06666667  0.00000000       0.018
   0.40000000  0.06666667  0.00000000       0.018
   0.46666667  0.06666667  0.00000000       0.018
  -0.46666667  0.06666667  0.00000000       0.018
  -0.40000000  0.06666667  0.00000000       0.018
  -0.33333333  0.06666667  0.00000000       0.018
  -0.26666667  0.06666667  0.00000000       0.018
  -0.20000000  0.06666667  0.00000000       0.018
  -0.13333333  0.06666667  0.00000000       0.018
  -0.06666667  0.06666667  0.00000000       0.009
   0.13333333  0.13333333  0.00000000       0.009
   0.20000000  0.13333333  0.00000000       0.018
   0.26666667  0.13333333  0.00000000       0.018
   0.33333333  0.13333333  0.00000000       0.018
   0.40000000  0.13333333  0.00000000       0.018
   0.46666667  0.13333333  0.00000000       0.018
  -0.46666667  0.13333333  0.00000000       0.018
  -0.40000000  0.13333333  0.00000000       0.018
  -0.33333333  0.13333333  0.00000000       0.018
  -0.26666667  0.13333333  0.00000000       0.018
  -0.20000000  0.13333333  0.00000000       0.018
  -0.13333333  0.13333333  0.00000000       0.009
   0.20000000  0.20000000  0.00000000       0.009
   0.26666667  0.20000000  0.00000000       0.018
   0.33333333  0.20000000  0.00000000       0.018
   0.40000000  0.20000000  0.00000000       0.018
   0.46666667  0.20000000  0.00000000       0.018
  -0.46666667  0.20000000  0.00000000       0.018
  -0.40000000  0.20000000  0.00000000       0.018
  -0.33333333  0.20000000  0.00000000       0.018
  -0.26666667  0.20000000  0.00000000       0.018
  -0.20000000  0.20000000  0.00000000       0.009
   0.26666667  0.26666667  0.00000000       0.009
   0.33333333  0.26666667  0.00000000       0.018
   0.40000000  0.26666667  0.00000000       0.018
   0.46666667  0.26666667  0.00000000       0.018
  -0.46666667  0.26666667  0.00000000       0.018
  -0.40000000  0.26666667  0.00000000       0.018
  -0.33333333  0.26666667  0.00000000       0.018
  -0.26666667  0.26666667  0.00000000       0.009
   0.33333333  0.33333333  0.00000000       0.009
   0.40000000  0.33333333  0.00000000       0.018
   0.46666667  0.33333333  0.00000000       0.018
  -0.46666667  0.33333333  0.00000000       0.018
  -0.40000000  0.33333333  0.00000000       0.018
  -0.33333333  0.33333333  0.00000000       0.009
   0.40000000  0.40000000  0.00000000       0.009
   0.46666667  0.40000000  0.00000000       0.018
  -0.46666667  0.40000000  0.00000000       0.018
  -0.40000000  0.40000000  0.00000000       0.009
   0.46666667  0.46666667  0.00000000       0.009
  -0.46666667  0.46666667  0.00000000       0.009
 
 position of ions in fractional coordinates (direct lattice) 
   0.66667002  0.33333001  0.44637001
   0.33333001  0.66667002  0.50897002
   0.33333001  0.66667002  0.38376999
 
 position of ions in cartesian coordinates  (Angst):
   1.59516601  0.92095108 11.15925015
  -0.00001597  1.84192983 12.72425055
  -0.00001597  1.84192983  9.59424973
 


--------------------------------------------------------------------------------------------------------


 k-point  1 :   0.0000 0.0000 0.0000  plane waves:    4875
 k-point  2 :   0.0667 0.0000 0.0000  plane waves:    4859
 k-point  3 :   0.1333-0.0000 0.0000  plane waves:    4837
 k-point  4 :   0.2000-0.0000 0.0000  plane waves:    4809
 k-point  5 :   0.2667 0.0000 0.0000  plane waves:    4792
 k-point  6 :   0.3333 0.0000 0.0000  plane waves:    4770
 k-point  7 :   0.4000-0.0000 0.0000  plane waves:    4754
 k-point  8 :   0.4667 0.0000 0.0000  plane waves:    4722
 k-point  9 :   0.0667 0.0667 0.0000  plane waves:    4853
 k-point 10 :   0.1333 0.0667 0.0000  plane waves:    4825
 k-point 11 :   0.2000 0.0667 0.0000  plane waves:    4801
 k-point 12 :   0.2667 0.0667 0.0000  plane waves:    4789
 k-point 13 :   0.3333 0.0667 0.0000  plane waves:    4757
 k-point 14 :   0.4000 0.0667 0.0000  plane waves:    4735
 k-point 15 :   0.4667 0.0667 0.0000  plane waves:    4722
 k-point 16 :  -0.4667 0.0667 0.0000  plane waves:    4735
 k-point 17 :  -0.4000 0.0667 0.0000  plane waves:    4757
 k-point 18 :  -0.3333 0.0667 0.0000  plane waves:    4789
 k-point 19 :  -0.2667 0.0667 0.0000  plane waves:    4801
 k-point 20 :  -0.2000 0.0667 0.0000  plane waves:    4825
 k-point 21 :  -0.1333 0.0667 0.0000  plane waves:    4853
 k-point 22 :  -0.0667 0.0667 0.0000  plane waves:    4859
 k-point 23 :   0.1333 0.1333 0.0000  plane waves:    4789
 k-point 24 :   0.2000 0.1333 0.0000  plane waves:    4787
 k-point 25 :   0.2667 0.1333 0.0000  plane waves:    4773
 k-point 26 :   0.3333 0.1333 0.0000  plane waves:    4763
 k-point 27 :   0.4000 0.1333 0.0000  plane waves:    4743
 k-point 28 :   0.4667 0.1333 0.0000  plane waves:    4743
 k-point 29 :  -0.4667 0.1333 0.0000  plane waves:    4763
 k-point 30 :  -0.4000 0.1333 0.0000  plane waves:    4773
 k-point 31 :  -0.3333 0.1333 0.0000  plane waves:    4787
 k-point 32 :  -0.2667 0.1333 0.0000  plane waves:    4789
 k-point 33 :  -0.2000 0.1333 0.0000  plane waves:    4825
 k-point 34 :  -0.1333 0.1333 0.0000  plane waves:    4837
 k-point 35 :   0.2000 0.2000 0.0000  plane waves:    4787
 k-point 36 :   0.2667 0.2000 0.0000  plane waves:    4775
 k-point 37 :   0.3333 0.2000 0.0000  plane waves:    4760
 k-point 38 :   0.4000 0.2000 0.0000  plane waves:    4760
 k-point 39 :   0.4667 0.2000 0.0000  plane waves:    4760
 k-point 40 :  -0.4667 0.2000 0.0000  plane waves:    4775
 k-point 41 :  -0.4000 0.2000 0.0000  plane waves:    4787
 k-point 42 :  -0.3333 0.2000 0.0000  plane waves:    4787
 k-point 43 :  -0.2667 0.2000 0.0000  plane waves:    4801
 k-point 44 :  -0.2000 0.2000 0.0000  plane waves:    4809
 k-point 45 :   0.2667 0.2667 0.0000  plane waves:    4766
 k-point 46 :   0.3333 0.2667 0.0000  plane waves:    4757
 k-point 47 :   0.4000 0.2667 0.0000  plane waves:    4757
 k-point 48 :   0.4667 0.2667 0.0000  plane waves:    4766
 k-point 49 :  -0.4667 0.2667 0.0000  plane waves:    4775
 k-point 50 :  -0.4000 0.2667 0.0000  plane waves:    4773
 k-point 51 :  -0.3333 0.2667 0.0000  plane waves:    4789
 k-point 52 :  -0.2667 0.2667 0.0000  plane waves:    4792
 k-point 53 :   0.3333 0.3333 0.0000  plane waves:    4776
 k-point 54 :   0.4000 0.3333 0.0000  plane waves:    4757
 k-point 55 :   0.4667 0.3333 0.0000  plane waves:    4760
 k-point 56 :  -0.4667 0.3333 0.0000  plane waves:    4763
 k-point 57 :  -0.4000 0.3333 0.0000  plane waves:    4757
 k-point 58 :  -0.3333 0.3333 0.0000  plane waves:    4770
 k-point 59 :   0.4000 0.4000 0.0000  plane waves:    4760
 k-point 60 :   0.4667 0.4000 0.0000  plane waves:    4743
 k-point 61 :  -0.4667 0.4000 0.0000  plane waves:    4735
 k-point 62 :  -0.4000 0.4000 0.0000  plane waves:    4754
 k-point 63 :   0.4667 0.4667 0.0000  plane waves:    4722
 k-point 64 :  -0.4667 0.4667 0.0000  plane waves:    4722

 maximum and minimum number of plane-waves per node :      4875     4722

 maximum number of plane-waves:      4875
 maximum index in each direction: 
   IXMAX=    5   IYMAX=    5   IZMAX=   43
   IXMIN=   -5   IYMIN=   -5   IZMIN=  -43

 WARNING: aliasing errors must be expected set NGX to  22 to avoid them
 WARNING: aliasing errors must be expected set NGY to  22 to avoid them
 WARNING: aliasing errors must be expected set NGZ to 174 to avoid them
 aliasing errors are usually negligible using standard VASP settings
 and one can safely disregard these warnings

 serial   3D FFT for wavefunctions
 parallel 3D FFT for charge:
    minimum data exchange during FFTs selected (reduces bandwidth)


 total amount of memory used by VASP on root node    67781. kBytes
========================================================================

   base      :      30000. kBytes
   nonlr-proj:        993. kBytes
   fftplans  :       6463. kBytes
   grid      :      10160. kBytes
   one-center:         46. kBytes
   wavefun   :      20119. kBytes
 
     INWAV:  cpu time    0.00: real time    0.00
 Broyden mixing: mesh for mixing (old mesh)
   NGX = 11   NGY = 11   NGZ = 87
  (NGX  = 36   NGY  = 36   NGZ  =280)
  gives a total of  10527 points

 initial charge density was supplied:
 charge density of overlapping atoms calculated
 number of electron      18.0000000 magnetization 
 keeping initial charge density in first step


--------------------------------------------------------------------------------------------------------


 Maximum index for non-local projection operator         3750
 Maximum index for augmentation-charges         3117 (set IRDMAX)


--------------------------------------------------------------------------------------------------------


 First call to EWALD:  gamma=   0.293
 Maximum number of real-space cells 5x 5x 1
 Maximum number of reciprocal cells 2x 2x10

 FEWALD executed in parallel
    FEWALD:  cpu time    0.00: real time    0.00


----------------------------------------- Iteration    1(   1)  ---------------------------------------


    POTLOK:  cpu time    0.09: real time    0.09
    SETDIJ:  cpu time    0.00: real time    0.00
     EDDAV:  cpu time    1.99: real time    2.01
       DOS:  cpu time    0.00: real time    0.00
    --------------------------------------------
      LOOP:  cpu time    2.09: real time    2.35

 eigenvalue-minimisations  :  2048
 total energy-change (2. order) : 0.1239721E+03  (-0.5544450E+03)
 number of electron      18.0000000 magnetization 
 augmentation part       18.0000000 magnetization 

 Free energy of the ion-electron system (eV)
  ---------------------------------------------------
  alpha Z        PSCENC =        13.45458787
  Ewald energy   TEWEN  =      3780.59776806
  -Hartree energ DENC   =     -4466.65093373
  -exchange      EXHF   =         0.00000000
  -V(xc)+E(xc)   XCENC  =       -36.31090320
  PAW double counting   =       406.88651198     -329.34073203
  entropy T*S    EENTRO =        -0.00777883
  eigenvalues    EBANDS =       -15.81157494
  atomic energy  EATOM  =       771.15511399
  ---------------------------------------------------
  free energy    TOTEN  =       123.97205918 eV

  energy without entropy =      123.97983801  energy(sigma->0) =      123.97594859


--------------------------------------------------------------------------------------------------------




----------------------------------------- Iteration    1(   2)  ---------------------------------------


     EDDAV:  cpu time    2.90: real time    2.90
       DOS:  cpu time    0.00: real time    0.00
    --------------------------------------------
      LOOP:  cpu time    2.91: real time    3.41

 eigenvalue-minimisations  :  3352
 total energy-change (2. order) :-0.1335342E+03  (-0.1240001E+03)
 number of electron      18.0000000 magnetization 
 augmentation part       18.0000000 magnetization 

 Free energy of the ion-electron system (eV)
  ---------------------------------------------------
  alpha Z        PSCENC =        13.45458787
  Ewald energy   TEWEN  =      3780.59776806
  -Hartree energ DENC   =     -4466.65093373
  -exchange      EXHF   =         0.00000000
  -V(xc)+E(xc)   XCENC  =       -36.31090320
  PAW double counting   =       406.88651198     -329.34073203
  entropy T*S    EENTRO =        -0.00000000
  eigenvalues    EBANDS =      -149.35350826
  atomic energy  EATOM  =       771.15511399
  ---------------------------------------------------
  free energy    TOTEN  =        -9.56209531 eV

  energy without entropy =       -9.56209531  energy(sigma->0) =       -9.56209531


--------------------------------------------------------------------------------------------------------




----------------------------------------- Iteration    1(   3)  ---------------------------------------


     EDDAV:  cpu time    2.44: real time    2.44
       DOS:  cpu time    0.00: real time    0.00
    --------------------------------------------
      LOOP:  cpu time    2.44: real time    3.27

 eigenvalue-minimisations  :  2808
 total energy-change (2. order) :-0.1358252E+02  (-0.1340301E+02)
 number of electron      18.0000000 magnetization 
 augmentation part       18.0000000 magnetization 

 Free energy of the ion-electron system (eV)
  ---------------------------------------------------
  alpha Z        PSCENC =        13.45458787
  Ewald energy   TEWEN  =      3780.59776806
  -Hartree energ DENC   =     -4466.65093373
  -exchange      EXHF   =         0.00000000
  -V(xc)+E(xc)   XCENC  =       -36.31090320
  PAW double counting   =       406.88651198     -329.34073203
  entropy T*S    EENTRO =        -0.00000000
  eigenvalues    EBANDS =      -162.93602530
  atomic energy  EATOM  =       771.15511399
  ---------------------------------------------------
  free energy    TOTEN  =       -23.14461235 eV

  energy without entropy =      -23.14461235  energy(sigma->0) =      -23.14461235


--------------------------------------------------------------------------------------------------------




----------------------------------------- Iteration    1(   4)  ---------------------------------------


     EDDAV:  cpu time    2.30: real time    2.30
       DOS:  cpu time    0.00: real time    0.00
    --------------------------------------------
      LOOP:  cpu time    2.30: real time    3.73

 eigenvalue-minimisations  :  2656
 total energy-change (2. order) :-0.2573976E+00  (-0.2569332E+00)
 number of electron      18.0000000 magnetization 
 augmentation part       18.0000000 magnetization 

 Free energy of the ion-electron system (eV)
  ---------------------------------------------------
  alpha Z        PSCENC =        13.45458787
  Ewald energy   TEWEN  =      3780.59776806
  -Hartree energ DENC   =     -4466.65093373
  -exchange      EXHF   =         0.00000000
  -V(xc)+E(xc)   XCENC  =       -36.31090320
  PAW double counting   =       406.88651198     -329.34073203
  entropy T*S    EENTRO =        -0.00000000
  eigenvalues    EBANDS =      -163.19342286
  atomic energy  EATOM  =       771.15511399
  ---------------------------------------------------
  free energy    TOTEN  =       -23.40200991 eV

  energy without entropy =      -23.40200991  energy(sigma->0) =      -23.40200991


--------------------------------------------------------------------------------------------------------




----------------------------------------- Iteration    1(   5)  ---------------------------------------


     EDDAV:  cpu time    2.43: real time    2.43
       DOS:  cpu time    0.00: real time    0.00
    CHARGE:  cpu time    0.15: real time    0.15
    MIXING:  cpu time    0.00: real time    0.00
    --------------------------------------------
      LOOP:  cpu time    2.59: real time    3.20

 eigenvalue-minimisations  :  2928
 total energy-change (2. order) :-0.6788440E-02  (-0.6787834E-02)
 number of electron      17.9999997 magnetization 
 augmentation part       -0.9453692 magnetization 

 Broyden mixing:
  rms(total) = 0.68879E+00    rms(broyden)= 0.68878E+00
  rms(prec ) = 0.75460E+00
  weight for this iteration     100.00

 Free energy of the ion-electron system (eV)
  ---------------------------------------------------
  alpha Z        PSCENC =        13.45458787
  Ewald energy   TEWEN  =      3780.59776806
  -Hartree energ DENC   =     -4466.65093373
  -exchange      EXHF   =         0.00000000
  -V(xc)+E(xc)   XCENC  =       -36.31090320
  PAW double counting   =       406.88651198     -329.34073203
  entropy T*S    EENTRO =        -0.00000000
  eigenvalues    EBANDS =      -163.20021130
  atomic energy  EATOM  =       771.15511399
  ---------------------------------------------------
  free energy    TOTEN  =       -23.40879835 eV

  energy without entropy =      -23.40879835  energy(sigma->0) =      -23.40879835


--------------------------------------------------------------------------------------------------------




----------------------------------------- Iteration    1(   6)  ---------------------------------------


    POTLOK:  cpu time    0.09: real time    0.09
    SETDIJ:  cpu time    0.00: real time    0.00
     EDDAV:  cpu time    2.07: real time    2.07
       DOS:  cpu time    0.00: real time    0.00
    CHARGE:  cpu time    0.14: real time    0.14
    MIXING:  cpu time    0.00: real time    0.00
    --------------------------------------------
      LOOP:  cpu time    2.32: real time    3.09

 eigenvalue-minimisations  :  2472
 total energy-change (2. order) : 0.1176652E+01  (-0.4933233E+00)
 number of electron      17.9999997 magnetization 
 augmentation part       -0.3642421 magnetization 

 Broyden mixing:
  rms(total) = 0.28211E+00    rms(broyden)= 0.28211E+00
  rms(prec ) = 0.34115E+00
  weight for this iteration     100.00

 eigenvalues of (default mixing * dielectric matrix)
  average eigenvalue GAMMA=   0.7943
  0.7943

 Free energy of the ion-electron system (eV)
  ---------------------------------------------------
  alpha Z        PSCENC =        13.45458787
  Ewald energy   TEWEN  =      3780.59776806
  -Hartree energ DENC   =     -4465.04165289
  -exchange      EXHF   =         0.00000000
  -V(xc)+E(xc)   XCENC  =       -35.42434862
  PAW double counting   =       423.97525516     -347.31956281
  entropy T*S    EENTRO =        -0.00000000
  eigenvalues    EBANDS =      -163.62930688
  atomic energy  EATOM  =       771.15511399
  ---------------------------------------------------
  free energy    TOTEN  =       -22.23214612 eV

  energy without entropy =      -22.23214612  energy(sigma->0) =      -22.23214612


--------------------------------------------------------------------------------------------------------




----------------------------------------- Iteration    1(   7)  ---------------------------------------


    POTLOK:  cpu time    0.09: real time    0.09
    SETDIJ:  cpu time    0.00: real time    0.00
     EDDAV:  cpu time    2.23: real time    2.23
       DOS:  cpu time    0.00: real time    0.00
    CHARGE:  cpu time    0.15: real time    0.15
    MIXING:  cpu time    0.00: real time    0.00
    --------------------------------------------
      LOOP:  cpu time    2.47: real time    3.29

 eigenvalue-minimisations  :  2616
 total energy-change (2. order) : 0.3564489E+00  (-0.1318804E+00)
 number of electron      17.9999997 magnetization 
 augmentation part       -0.6105317 magnetization 

 Broyden mixing:
  rms(total) = 0.16888E+00    rms(broyden)= 0.16888E+00
  rms(prec ) = 0.18007E+00
  weight for this iteration     100.00

 eigenvalues of (default mixing * dielectric matrix)
  average eigenvalue GAMMA=   1.3733
  2.1270  0.6196

 Free energy of the ion-electron system (eV)
  ---------------------------------------------------
  alpha Z        PSCENC =        13.45458787
  Ewald energy   TEWEN  =      3780.59776806
  -Hartree energ DENC   =     -4470.59483137
  -exchange      EXHF   =         0.00000000
  -V(xc)+E(xc)   XCENC  =       -35.60115900
  PAW double counting   =       441.20392565     -364.76815849
  entropy T*S    EENTRO =        -0.00000000
  eigenvalues    EBANDS =      -157.32294395
  atomic energy  EATOM  =       771.15511399
  ---------------------------------------------------
  free energy    TOTEN  =       -21.87569724 eV

  energy without entropy =      -21.87569724  energy(sigma->0) =      -21.87569724


--------------------------------------------------------------------------------------------------------




----------------------------------------- Iteration    1(   8)  ---------------------------------------


    POTLOK:  cpu time    0.08: real time    0.08
    SETDIJ:  cpu time    0.00: real time    0.00
     EDDAV:  cpu time    2.59: real time    2.60
       DOS:  cpu time    0.00: real time    0.00
    CHARGE:  cpu time    0.15: real time    0.15
    MIXING:  cpu time    0.00: real time    0.00
    --------------------------------------------
      LOOP:  cpu time    2.83: real time    3.56

 eigenvalue-minimisations  :  2976
 total energy-change (2. order) : 0.7364285E-01  (-0.1990398E-01)
 number of electron      17.9999997 magnetization 
 augmentation part       -0.5472020 magnetization 

 Broyden mixing:
  rms(total) = 0.31648E-01    rms(broyden)= 0.31648E-01
  rms(prec ) = 0.34466E-01
  weight for this iteration     100.00

 eigenvalues of (default mixing * dielectric matrix)
  average eigenvalue GAMMA=   1.3412
  0.6114  1.2809  2.1313

 Free energy of the ion-electron system (eV)
  ---------------------------------------------------
  alpha Z        PSCENC =        13.45458787
  Ewald energy   TEWEN  =      3780.59776806
  -Hartree energ DENC   =     -4473.39898993
  -exchange      EXHF   =         0.00000000
  -V(xc)+E(xc)   XCENC  =       -35.31105237
  PAW double counting   =       464.32631072     -388.41449651
  entropy T*S    EENTRO =        -0.00000000
  eigenvalues    EBANDS =      -154.21129623
  atomic energy  EATOM  =       771.15511399
  ---------------------------------------------------
  free energy    TOTEN  =       -21.80205439 eV

  energy without entropy =      -21.80205439  energy(sigma->0) =      -21.80205439


--------------------------------------------------------------------------------------------------------




----------------------------------------- Iteration    1(   9)  ---------------------------------------


    POTLOK:  cpu time    0.09: real time    0.09
    SETDIJ:  cpu time    0.00: real time    0.00
     EDDAV:  cpu time    2.44: real time    2.44
       DOS:  cpu time    0.00: real time    0.00
    CHARGE:  cpu time    0.16: real time    0.16
    MIXING:  cpu time    0.00: real time    0.00
    --------------------------------------------
      LOOP:  cpu time    2.69: real time    3.24

 eigenvalue-minimisations  :  2872
 total energy-change (2. order) : 0.2512627E-02  (-0.1466093E-02)
 number of electron      17.9999997 magnetization 
 augmentation part       -0.5479475 magnetization 

 Broyden mixing:
  rms(total) = 0.16077E-01    rms(broyden)= 0.16077E-01
  rms(prec ) = 0.18314E-01
  weight for this iteration     100.00

 eigenvalues of (default mixing * dielectric matrix)
  average eigenvalue GAMMA=   1.5062
  2.5537  1.9199  0.6110  0.9400

 Free energy of the ion-electron system (eV)
  ---------------------------------------------------
  alpha Z        PSCENC =        13.45458787
  Ewald energy   TEWEN  =      3780.59776806
  -Hartree energ DENC   =     -4474.78481865
  -exchange      EXHF   =         0.00000000
  -V(xc)+E(xc)   XCENC  =       -35.25994475
  PAW double counting   =       469.73593518     -393.90659326
  entropy T*S    EENTRO =        -0.00000000
  eigenvalues    EBANDS =      -152.79159021
  atomic energy  EATOM  =       771.15511399
  ---------------------------------------------------
  free energy    TOTEN  =       -21.79954176 eV

  energy without entropy =      -21.79954176  energy(sigma->0) =      -21.79954176


--------------------------------------------------------------------------------------------------------




----------------------------------------- Iteration    1(  10)  ---------------------------------------


    POTLOK:  cpu time    0.08: real time    0.08
    SETDIJ:  cpu time    0.00: real time    0.00
     EDDAV:  cpu time    2.48: real time    2.48
       DOS:  cpu time    0.00: real time    0.00
    CHARGE:  cpu time    0.15: real time    0.15
    MIXING:  cpu time    0.00: real time    0.00
    --------------------------------------------
      LOOP:  cpu time    2.73: real time    3.23

 eigenvalue-minimisations  :  2904
 total energy-change (2. order) : 0.1706943E-02  (-0.2883456E-03)
 number of electron      17.9999997 magnetization 
 augmentation part       -0.5520776 magnetization 

 Broyden mixing:
  rms(total) = 0.48156E-02    rms(broyden)= 0.48155E-02
  rms(prec ) = 0.68518E-02
  weight for this iteration     100.00

 eigenvalues of (default mixing * dielectric matrix)
  average eigenvalue GAMMA=   1.3813
  2.4130  0.6124  1.0082  1.6176  1.2553

 Free energy of the ion-electron system (eV)
  ---------------------------------------------------
  alpha Z        PSCENC =        13.45458787
  Ewald energy   TEWEN  =      3780.59776806
  -Hartree energ DENC   =     -4476.32097581
  -exchange      EXHF   =         0.00000000
  -V(xc)+E(xc)   XCENC  =       -35.22447631
  PAW double counting   =       473.14013197     -397.34758432
  entropy T*S    EENTRO =        -0.00000000
  eigenvalues    EBANDS =      -151.25240028
  atomic energy  EATOM  =       771.15511399
  ---------------------------------------------------
  free energy    TOTEN  =       -21.79783482 eV

  energy without entropy =      -21.79783482  energy(sigma->0) =      -21.79783482


--------------------------------------------------------------------------------------------------------




----------------------------------------- Iteration    1(  11)  ---------------------------------------


    POTLOK:  cpu time    0.08: real time    0.08
    SETDIJ:  cpu time    0.00: real time    0.00
     EDDAV:  cpu time    2.44: real time    2.44
       DOS:  cpu time    0.00: real time    0.00
    CHARGE:  cpu time    0.15: real time    0.15
    MIXING:  cpu time    0.00: real time    0.00
    --------------------------------------------
      LOOP:  cpu time    2.69: real time    3.35

 eigenvalue-minimisations  :  2864
 total energy-change (2. order) : 0.1342624E-03  (-0.5097159E-04)
 number of electron      17.9999997 magnetization 
 augmentation part       -0.5496163 magnetization 

 Broyden mixing:
  rms(total) = 0.28282E-02    rms(broyden)= 0.28282E-02
  rms(prec ) = 0.49899E-02
  weight for this iteration     100.00

 eigenvalues of (default mixing * dielectric matrix)
  average eigenvalue GAMMA=   1.6594
  2.8261  2.8261  0.6121  0.9212  1.3856  1.3856

 Free energy of the ion-electron system (eV)
  ---------------------------------------------------
  alpha Z        PSCENC =        13.45458787
  Ewald energy   TEWEN  =      3780.59776806
  -Hartree energ DENC   =     -4476.70444854
  -exchange      EXHF   =         0.00000000
  -V(xc)+E(xc)   XCENC  =       -35.22057959
  PAW double counting   =       472.60349045     -396.80295456
  entropy T*S    EENTRO =        -0.00000000
  eigenvalues    EBANDS =      -150.88067824
  atomic energy  EATOM  =       771.15511399
  ---------------------------------------------------
  free energy    TOTEN  =       -21.79770056 eV

  energy without entropy =      -21.79770056  energy(sigma->0) =      -21.79770056


--------------------------------------------------------------------------------------------------------




----------------------------------------- Iteration    1(  12)  ---------------------------------------


    POTLOK:  cpu time    0.09: real time    0.09
    SETDIJ:  cpu time    0.00: real time    0.00
     EDDAV:  cpu time    2.45: real time    2.45
       DOS:  cpu time    0.00: real time    0.00
    CHARGE:  cpu time    0.16: real time    0.16
    MIXING:  cpu time    0.00: real time    0.00
    --------------------------------------------
      LOOP:  cpu time    2.70: real time    3.14

 eigenvalue-minimisations  :  2856
 total energy-change (2. order) : 0.3403335E-03  (-0.5369024E-04)
 number of electron      17.9999997 magnetization 
 augmentation part       -0.5515673 magnetization 

 Broyden mixing:
  rms(total) = 0.31327E-02    rms(broyden)= 0.31327E-02
  rms(prec ) = 0.37276E-02
  weight for this iteration     100.00

 eigenvalues of (default mixing * dielectric matrix)
  average eigenvalue GAMMA=   1.5979
  3.0149  2.2765  0.6124  1.6467  1.6467  0.9593  1.0291

 Free energy of the ion-electron system (eV)
  ---------------------------------------------------
  alpha Z        PSCENC =        13.45458787
  Ewald energy   TEWEN  =      3780.59776806
  -Hartree energ DENC   =     -4478.33428177
  -exchange      EXHF   =         0.00000000
  -V(xc)+E(xc)   XCENC  =       -35.20713085
  PAW double counting   =       472.28068510     -396.46668731
  entropy T*S    EENTRO =        -0.00000000
  eigenvalues    EBANDS =      -149.27741532
  atomic energy  EATOM  =       771.15511399
  ---------------------------------------------------
  free energy    TOTEN  =       -21.79736022 eV

  energy without entropy =      -21.79736022  energy(sigma->0) =      -21.79736022


--------------------------------------------------------------------------------------------------------




----------------------------------------- Iteration    1(  13)  ---------------------------------------


    POTLOK:  cpu time    0.09: real time    0.09
    SETDIJ:  cpu time    0.00: real time    0.00
     EDDAV:  cpu time    2.13: real time    2.13
       DOS:  cpu time    0.00: real time    0.00
    CHARGE:  cpu time    0.16: real time    0.16
    MIXING:  cpu time    0.00: real time    0.00
    --------------------------------------------
      LOOP:  cpu time    2.38: real time    3.52

 eigenvalue-minimisations  :  2176
 total energy-change (2. order) :-0.2021382E-03  (-0.2817876E-04)
 number of electron      17.9999997 magnetization 
 augmentation part       -0.5480377 magnetization 

 Broyden mixing:
  rms(total) = 0.30469E-02    rms(broyden)= 0.30469E-02
  rms(prec ) = 0.35629E-02
  weight for this iteration     100.00

 eigenvalues of (default mixing * dielectric matrix)
  average eigenvalue GAMMA=   1.9435
  4.9553  2.8831  2.4417  0.6124  1.3898  1.3898  0.9806  0.8948

 Free energy of the ion-electron system (eV)
  ---------------------------------------------------
  alpha Z        PSCENC =        13.45458787
  Ewald energy   TEWEN  =      3780.59776806
  -Hartree energ DENC   =     -4478.65180098
  -exchange      EXHF   =         0.00000000
  -V(xc)+E(xc)   XCENC  =       -35.19997880
  PAW double counting   =       472.33883736     -396.53376906
  entropy T*S    EENTRO =        -0.00000000
  eigenvalues    EBANDS =      -148.95832081
  atomic energy  EATOM  =       771.15511399
  ---------------------------------------------------
  free energy    TOTEN  =       -21.79756236 eV

  energy without entropy =      -21.79756236  energy(sigma->0) =      -21.79756236


--------------------------------------------------------------------------------------------------------




----------------------------------------- Iteration    1(  14)  ---------------------------------------


    POTLOK:  cpu time    0.09: real time    0.09
    SETDIJ:  cpu time    0.00: real time    0.00
     EDDAV:  cpu time    2.04: real time    2.04
       DOS:  cpu time    0.00: real time    0.00
    CHARGE:  cpu time    0.17: real time    0.17
    MIXING:  cpu time    0.00: real time    0.00
    --------------------------------------------
      LOOP:  cpu time    2.31: real time    3.11

 eigenvalue-minimisations  :  1888
 total energy-change (2. order) :-0.1464218E-03  (-0.7095780E-05)
 number of electron      17.9999997 magnetization 
 augmentation part       -0.5497729 magnetization 

 Broyden mixing:
  rms(total) = 0.86331E-03    rms(broyden)= 0.86329E-03
  rms(prec ) = 0.10310E-02
  weight for this iteration     100.00

 eigenvalues of (default mixing * dielectric matrix)
  average eigenvalue GAMMA=   1.9288
  5.1185  2.7457  2.1175  2.1175  1.6144  0.6124  0.9172  1.0579  1.0579

 Free energy of the ion-electron system (eV)
  ---------------------------------------------------
  alpha Z        PSCENC =        13.45458787
  Ewald energy   TEWEN  =      3780.59776806
  -Hartree energ DENC   =     -4479.10766283
  -exchange      EXHF   =         0.00000000
  -V(xc)+E(xc)   XCENC  =       -35.20153593
  PAW double counting   =       472.04982859     -396.24042015
  entropy T*S    EENTRO =        -0.00000000
  eigenvalues    EBANDS =      -148.50538839
  atomic energy  EATOM  =       771.15511399
  ---------------------------------------------------
  free energy    TOTEN  =       -21.79770878 eV

  energy without entropy =      -21.79770878  energy(sigma->0) =      -21.79770878


--------------------------------------------------------------------------------------------------------




----------------------------------------- Iteration    1(  15)  ---------------------------------------


    POTLOK:  cpu time    0.09: real time    0.09
    SETDIJ:  cpu time    0.00: real time    0.00
     EDDAV:  cpu time    2.26: real time    2.26
       DOS:  cpu time    0.00: real time    0.00
    --------------------------------------------
      LOOP:  cpu time    2.36: real time    2.98

 eigenvalue-minimisations  :  2160
 total energy-change (2. order) :-0.9152105E-04  (-0.1498819E-05)
 number of electron      17.9999997 magnetization 
 augmentation part       -0.5497729 magnetization 

 Free energy of the ion-electron system (eV)
  ---------------------------------------------------
  alpha Z        PSCENC =        13.45458787
  Ewald energy   TEWEN  =      3780.59776806
  -Hartree energ DENC   =     -4479.25652270
  -exchange      EXHF   =         0.00000000
  -V(xc)+E(xc)   XCENC  =       -35.20075996
  PAW double counting   =       472.14580808     -396.33618861
  entropy T*S    EENTRO =        -0.00000000
  eigenvalues    EBANDS =      -148.35760705
  atomic energy  EATOM  =       771.15511399
  ---------------------------------------------------
  free energy    TOTEN  =       -21.79780030 eV

  energy without entropy =      -21.79780030  energy(sigma->0) =      -21.79780030


--------------------------------------------------------------------------------------------------------




 average (electrostatic) potential at core
  the test charge radii are     1.2296  0.9698
  (the norm of the test charge is              1.0000)
       1 -46.6943       2 -94.5319       3 -94.5319
 
 
 
 E-fermi :  -2.8283     XC(G=0):  -3.1677     alpha+bet : -2.8677


 k-point     1 :       0.0000    0.0000    0.0000
  band No.  band energies     occupation 
      1     -17.2816      2.00000
      2     -16.0736      2.00000
      3      -8.8018      2.00000
      4      -5.8408      2.00000
      5      -5.8407      2.00000
      6      -4.9800      2.00000
      7      -4.7354      2.00000
      8      -4.7351      2.00000
      9      -3.2602      2.00000
     10      -0.4882      0.00000
     11      -0.4878      0.00000
     12      -0.2645      0.00000
     13      -0.2644      0.00000
     14       2.0797      0.00000
     15       2.2271      0.00000
     16       2.7290      0.00000

 k-point     2 :       0.0667    0.0000    0.0000
  band No.  band energies     occupation 
      1     -17.2195      2.00000
      2     -16.0438      2.00000
      3      -8.7280      2.00000
      4      -5.9869      2.00000
      5      -5.7722      2.00000
      6      -5.3492      2.00000
      7      -4.8408      2.00000
      8      -4.4629      2.00000
      9      -3.2919      2.00000
     10      -0.5865      0.00000
     11      -0.4498      0.00000
     12      -0.3752      0.00000
     13      -0.3387      0.00000
     14       2.1936      0.00000
     15       2.3146      0.00000
     16       2.8454      0.00000

 k-point     3 :       0.1333   -0.0000    0.0000
  band No.  band energies     occupation 
      1     -17.0388      2.00000
      2     -15.9575      2.00000
      3      -8.5271      2.00000
      4      -6.3579      2.00000
      5      -5.8522      2.00000
      6      -5.5755      2.00000
      7      -5.1104      2.00000
      8      -4.2953      2.00000
      9      -3.4227      2.00000
     10      -0.8122      0.00000
     11      -0.7086      0.00000
     12      -0.5288      0.00000
     13      -0.0926      0.00000
     14       2.4764      0.00000
     15       2.5728      0.00000
     16       3.1308      0.00000

 k-point     4 :       0.2000   -0.0000    0.0000
  band No.  band energies     occupation 
      1     -16.7574      2.00000
      2     -15.8239      2.00000
      3      -8.2818      2.00000
      4      -6.7939      2.00000
      5      -6.3749      2.00000
      6      -5.4510      2.00000
      7      -5.2788      2.00000
      8      -4.3815      2.00000
      9      -3.7038      2.00000
     10      -1.0581      0.00000
     11      -0.7605      0.00000
     12      -0.6068      0.00000
     13       0.2475      0.00000
     14       2.8891      0.00000
     15       2.9922      0.00000
     16       3.5547      0.00000

 k-point     5 :       0.2667    0.0000    0.0000
  band No.  band energies     occupation 
      1     -16.4068      2.00000
      2     -15.6596      2.00000
      3      -8.2017      2.00000
      4      -7.0744      2.00000
      5      -6.8976      2.00000
      6      -5.7861      2.00000
      7      -4.9309      2.00000
      8      -4.6175      2.00000
      9      -4.0445      2.00000
     10      -1.0791      0.00000
     11      -0.9591      0.00000
     12      -0.2782      0.00000
     13       0.5534      0.00000
     14       3.4097      0.00000
     15       3.5531      0.00000
     16       4.1161      0.00000

 k-point     6 :       0.3333    0.0000    0.0000
  band No.  band energies     occupation 
      1     -16.0357      2.00000
      2     -15.4892      2.00000
      3      -8.4299      2.00000
      4      -7.3814      2.00000
      5      -7.1298      2.00000
      6      -6.0675      2.00000
      7      -4.8521      2.00000
      8      -4.5982      2.00000
      9      -4.2080      2.00000
     10      -1.0738      0.00000
     11      -0.9415      0.00000
     12       0.1239      0.00000
     13       0.7796      0.00000
     14       3.9415      0.00000
     15       4.1893      0.00000
     16       4.6285      0.00000

 k-point     7 :       0.4000   -0.0000    0.0000
  band No.  band energies     occupation 
      1     -15.7132      2.00000
      2     -15.3452      2.00000
      3      -8.7378      2.00000
      4      -7.7621      2.00000
      5      -7.1960      2.00000
      6      -6.2674      2.00000
      7      -5.0142      2.00000
      8      -4.3474      2.00000
      9      -4.0942      2.00000
     10      -1.0980      0.00000
     11      -0.7432      0.00000
     12       0.4517      0.00000
     13       0.9195      0.00000
     14       3.6018      0.00000
     15       4.6064      0.00000
     16       4.6211      0.00000

 k-point     8 :       0.4667    0.0000    0.0000
  band No.  band energies     occupation 
      1     -15.5208      2.00000
      2     -15.2615      2.00000
      3      -8.9343      2.00000
      4      -7.9733      2.00000
      5      -7.2771      2.00000
      6      -6.3707      2.00000
      7      -5.0926      2.00000
      8      -4.2177      2.00000
      9      -3.9110      2.00000
     10      -1.0797      0.00000
     11      -0.5843      0.00000
     12       0.6221      0.00000
     13       0.9842      0.00000
     14       3.0093      0.00000
     15       4.6994      0.00000
     16       4.9581      0.00000

 k-point     9 :       0.0667    0.0667    0.0000
  band No.  band energies     occupation 
      1     -17.0981      2.00000
      2     -15.9858      2.00000
      3      -8.5898      2.00000
      4      -6.2426      2.00000
      5      -5.6964      2.00000
      6      -5.6424      2.00000
      7      -5.0770      2.00000
      8      -4.2779      2.00000
      9      -3.3732      2.00000
     10      -0.7181      0.00000
     11      -0.7128      0.00000
     12      -0.4786      0.00000
     13      -0.1585      0.00000
     14       2.3887      0.00000
     15       2.4874      0.00000
     16       3.0420      0.00000

 k-point    10 :       0.1333    0.0667    0.0000
  band No.  band energies     occupation 
      1     -16.8668      2.00000
      2     -15.8756      2.00000
      3      -8.3589      2.00000
      4      -6.6381      2.00000
      5      -6.1334      2.00000
      6      -5.4690      2.00000
      7      -5.4092      2.00000
      8      -4.2119      2.00000
      9      -3.5828      2.00000
     10      -1.0095      0.00000
     11      -0.7659      0.00000
     12      -0.6865      0.00000
     13       0.1840      0.00000
     14       2.7348      0.00000
     15       2.8270      0.00000
     16       3.3935      0.00000

 k-point    11 :       0.2000    0.0667    0.0000
  band No.  band energies     occupation 
      1     -16.5499      2.00000
      2     -15.7257      2.00000
      3      -8.1747      2.00000
      4      -6.9850      2.00000
      5      -6.6281      2.00000
      6      -5.8428      2.00000
      7      -5.1289      2.00000
      8      -4.3599      2.00000
      9      -3.9005      2.00000
     10      -1.1697      0.00000
     11      -0.8483      0.00000
     12      -0.5722      0.00000
     13       0.5249      0.00000
     14       3.2090      0.00000
     15       3.3204      0.00000
     16       3.8893      0.00000

 k-point    12 :       0.2667    0.0667    0.0000
  band No.  band energies     occupation 
      1     -16.1869      2.00000
      2     -15.5565      2.00000
      3      -8.2655      2.00000
      4      -7.1512      2.00000
      5      -7.0937      2.00000
      6      -6.1115      2.00000
      7      -4.8988      2.00000
      8      -4.6190      2.00000
      9      -4.1141      2.00000
     10      -1.1858      0.00000
     11      -0.8878      0.00000
     12      -0.2083      0.00000
     13       0.7850      0.00000
     14       3.7695      0.00000
     15       3.9359      0.00000
     16       4.5231      0.00000

 k-point    13 :       0.3333    0.0667    0.0000
  band No.  band energies     occupation 
      1     -15.8360      2.00000
      2     -15.3964      2.00000
      3      -8.5511      2.00000
      4      -7.6160      2.00000
      5      -7.1234      2.00000
      6      -6.2783      2.00000
      7      -4.8663      2.00000
      8      -4.7518      2.00000
      9      -4.0423      2.00000
     10      -1.1198      0.00000
     11      -0.8034      0.00000
     12       0.1848      0.00000
     13       0.9216      0.00000
     14       4.0274      0.00000
     15       4.5618      0.00000
     16       4.5767      0.00000

 k-point    14 :       0.4000    0.0667    0.0000
  band No.  band energies     occupation 
      1     -15.5735      2.00000
      2     -15.2796      2.00000
      3      -8.8005      2.00000
      4      -7.9355      2.00000
      5      -7.2163      2.00000
      6      -6.3669      2.00000
      7      -5.0338      2.00000
      8      -4.6175      2.00000
      9      -3.8427      2.00000
     10      -1.0653      0.00000
     11      -0.6349      0.00000
     12       0.5137      0.00000
     13       0.9182      0.00000
     14       3.3272      0.00000
     15       4.9213      0.00000
     16       4.9872      0.00000

 k-point    15 :       0.4667    0.0667    0.0000
  band No.  band energies     occupation 
      1     -15.4748      2.00000
      2     -15.2365      2.00000
      3      -8.8966      2.00000
      4      -8.0493      2.00000
      5      -7.2682      2.00000
      6      -6.3943      2.00000
      7      -5.0923      2.00000
      8      -4.5606      2.00000
      9      -3.7372      2.00000
     10      -1.0558      0.00000
     11      -0.5328      0.00000
     12       0.7021      0.00000
     13       0.8341      0.00000
     14       3.0001      0.00000
     15       5.0387      0.00000
     16       5.2189      0.00000

 k-point    16 :      -0.4667    0.0667    0.0000
  band No.  band energies     occupation 
      1     -15.5735      2.00000
      2     -15.2796      2.00000
      3      -8.8005      2.00000
      4      -7.9355      2.00000
      5      -7.2163      2.00000
      6      -6.3668      2.00000
      7      -5.0338      2.00000
      8      -4.6176      2.00000
      9      -3.8427      2.00000
     10      -1.0654      0.00000
     11      -0.6349      0.00000
     12       0.5140      0.00000
     13       0.9180      0.00000
     14       3.3272      0.00000
     15       4.9214      0.00000
     16       4.9871      0.00000

 k-point    17 :      -0.4000    0.0667    0.0000
  band No.  band energies     occupation 
      1     -15.8361      2.00000
      2     -15.3964      2.00000
      3      -8.5511      2.00000
      4      -7.6161      2.00000
      5      -7.1234      2.00000
      6      -6.2783      2.00000
      7      -4.8664      2.00000
      8      -4.7519      2.00000
      9      -4.0422      2.00000
     10      -1.1198      0.00000
     11      -0.8033      0.00000
     12       0.1850      0.00000
     13       0.9214      0.00000
     14       4.0274      0.00000
     15       4.5618      0.00000
     16       4.5767      0.00000

 k-point    18 :      -0.3333    0.0667    0.0000
  band No.  band energies     occupation 
      1     -16.1869      2.00000
      2     -15.5564      2.00000
      3      -8.2655      2.00000
      4      -7.1512      2.00000
      5      -7.0937      2.00000
      6      -6.1115      2.00000
      7      -4.8989      2.00000
      8      -4.6190      2.00000
      9      -4.1140      2.00000
     10      -1.1859      0.00000
     11      -0.8877      0.00000
     12      -0.2083      0.00000
     13       0.7849      0.00000
     14       3.7694      0.00000
     15       3.9359      0.00000
     16       4.5231      0.00000

 k-point    19 :      -0.2667    0.0667    0.0000
  band No.  band energies     occupation 
      1     -16.5499      2.00000
      2     -15.7257      2.00000
      3      -8.1747      2.00000
      4      -6.9850      2.00000
      5      -6.6281      2.00000
      6      -5.8428      2.00000
      7      -5.1289      2.00000
      8      -4.3599      2.00000
      9      -3.9004      2.00000
     10      -1.1697      0.00000
     11      -0.8483      0.00000
     12      -0.5722      0.00000
     13       0.5249      0.00000
     14       3.2090      0.00000
     15       3.3204      0.00000
     16       3.8893      0.00000

 k-point    20 :      -0.2000    0.0667    0.0000
  band No.  band energies     occupation 
      1     -16.8668      2.00000
      2     -15.8756      2.00000
      3      -8.3589      2.00000
      4      -6.6381      2.00000
      5      -6.1333      2.00000
      6      -5.4691      2.00000
      7      -5.4092      2.00000
      8      -4.2119      2.00000
      9      -3.5828      2.00000
     10      -1.0095      0.00000
     11      -0.7660      0.00000
     12      -0.6865      0.00000
     13       0.1841      0.00000
     14       2.7348      0.00000
     15       2.8270      0.00000
     16       3.3935      0.00000

 k-point    21 :      -0.1333    0.0667    0.0000
  band No.  band energies     occupation 
      1     -17.0981      2.00000
      2     -15.9858      2.00000
      3      -8.5898      2.00000
      4      -6.2426      2.00000
      5      -5.6963      2.00000
      6      -5.6424      2.00000
      7      -5.0772      2.00000
      8      -4.2779      2.00000
      9      -3.3732      2.00000
     10      -0.7183      0.00000
     11      -0.7127      0.00000
     12      -0.4787      0.00000
     13      -0.1583      0.00000
     14       2.3887      0.00000
     15       2.4874      0.00000
     16       3.0419      0.00000

 k-point    22 :      -0.0667    0.0667    0.0000
  band No.  band energies     occupation 
      1     -17.2195      2.00000
      2     -16.0438      2.00000
      3      -8.7280      2.00000
      4      -5.9869      2.00000
      5      -5.7722      2.00000
      6      -5.3491      2.00000
      7      -4.8410      2.00000
      8      -4.4627      2.00000
      9      -3.2919      2.00000
     10      -0.5868      0.00000
     11      -0.4497      0.00000
     12      -0.3750      0.00000
     13      -0.3388      0.00000
     14       2.1936      0.00000
     15       2.3146      0.00000
     16       2.8454      0.00000

 k-point    23 :       0.1333    0.1333    0.0000
  band No.  band energies     occupation 
      1     -16.5994      2.00000
      2     -15.7484      2.00000
      3      -8.1691      2.00000
      4      -6.9338      2.00000
      5      -6.4376      2.00000
      6      -6.0122      2.00000
      7      -5.2240      2.00000
      8      -4.1793      2.00000
      9      -3.8393      2.00000
     10      -1.2141      0.00000
     11      -0.8093      0.00000
     12      -0.7545      0.00000
     13       0.5507      0.00000
     14       3.1457      0.00000
     15       3.2425      0.00000
     16       3.8179      0.00000

 k-point    24 :       0.2000    0.1333    0.0000
  band No.  band energies     occupation 
      1     -16.2678      2.00000
      2     -15.5916      2.00000
      3      -8.1467      2.00000
      4      -7.0465      2.00000
      5      -6.9179      2.00000
      6      -6.3401      2.00000
      7      -5.1593      2.00000
      8      -4.3335      2.00000
      9      -4.0409      2.00000
     10      -1.3078      0.00000
     11      -0.8194      0.00000
     12      -0.5488      0.00000
     13       0.8537      0.00000
     14       3.6790      0.00000
     15       3.8007      0.00000
     16       4.3915      0.00000

 k-point    25 :       0.2667    0.1333    0.0000
  band No.  band energies     occupation 
      1     -15.9195      2.00000
      2     -15.4284      2.00000
      3      -8.3393      2.00000
      4      -7.4764      2.00000
      5      -7.0128      2.00000
      6      -6.4323      2.00000
      7      -5.2410      2.00000
      8      -4.6101      2.00000
      9      -4.0151      2.00000
     10      -1.2027      0.00000
     11      -0.7803      0.00000
     12      -0.2165      0.00000
     13       1.0274      0.00000
     14       4.2231      0.00000
     15       4.4575      0.00000
     16       4.9160      0.00000

[...]
     14       3.8192      0.00000
     15       4.0059      0.00000
     16       4.5982      0.00000

 k-point    52 :      -0.2667    0.2667    0.0000
  band No.  band energies     occupation 
      1     -16.4225      2.00000
      2     -15.6608      2.00000
      3      -8.2243      2.00000
      4      -7.0868      2.00000
      5      -6.9050      2.00000
      6      -5.8085      2.00000
      7      -4.9568      2.00000
      8      -4.6014      2.00000
      9      -4.0364      2.00000
     10      -1.0552      0.00000
     11      -0.9457      0.00000
     12      -0.2626      0.00000
     13       0.5751      0.00000
     14       3.4715      0.00000
     15       3.6347      0.00000
     16       4.1808      0.00000

 k-point    53 :       0.3333    0.3333    0.0000
  band No.  band energies     occupation 
      1     -15.2618      2.00000
      2     -15.0926      2.00000
      3      -8.6102      2.00000
      4      -7.7892      2.00000
      5      -7.2992      2.00000
      6      -6.8077      2.00000
      7      -6.1125      2.00000
      8      -5.3733      2.00000
      9      -3.2658      2.00000
     10      -1.6143      0.00000
     11      -0.1913      0.00000
     12       0.2495      0.00000
     13       1.5810      0.00000
     14       3.9905      0.00000
     15       4.4301      0.00000
     16       6.4184      0.00000

 k-point    54 :       0.4000    0.3333    0.0000
  band No.  band energies     occupation 
      1     -15.3095      2.00000
      2     -15.1203      2.00000
      3      -8.5168      2.00000
      4      -8.0993      2.00000
      5      -7.0770      2.00000
      6      -6.5898      2.00000
      7      -6.2217      2.00000
      8      -5.2446      2.00000
      9      -3.3966      2.00000
     10      -1.4506      0.00000
     11      -0.1332      0.00000
     12       0.0756      0.00000
     13       1.4889      0.00000
     14       3.8376      0.00000
     15       4.8564      0.00000
     16       6.2062      0.00000

 k-point    55 :       0.4667    0.3333    0.0000
  band No.  band energies     occupation 
      1     -15.4432      2.00000
      2     -15.1948      2.00000
      3      -8.4209      2.00000
      4      -8.2626      2.00000
      5      -7.0479      2.00000
      6      -6.3862      2.00000
      7      -5.9432      2.00000
      8      -5.0238      2.00000
      9      -3.6339      2.00000
     10      -1.1637      0.00000
     11      -0.3204      0.00000
     12       0.0083      0.00000
     13       1.2772      0.00000
     14       3.7687      0.00000
     15       5.4966      0.00000
     16       5.7302      0.00000

 k-point    56 :      -0.4667    0.3333    0.0000
  band No.  band energies     occupation 
      1     -15.6366      2.00000
      2     -15.2959      2.00000
      3      -8.5751      2.00000
      4      -7.9271      2.00000
      5      -7.0910      2.00000
      6      -6.4366      2.00000
      7      -5.2677      2.00000
      8      -4.8759      2.00000
      9      -3.8387      2.00000
     10      -1.0463      0.00000
     11      -0.6572      0.00000
     12       0.1429      0.00000
     13       1.0863      0.00000
     14       3.8605      0.00000
     15       5.1326      0.00000
     16       5.1338      0.00000

 k-point    57 :      -0.4000    0.3333    0.0000
  band No.  band energies     occupation 
      1     -15.8523      2.00000
      2     -15.4011      2.00000
      3      -8.5702      2.00000
      4      -7.6226      2.00000
      5      -7.1318      2.00000
      6      -6.2962      2.00000
      7      -4.8504      2.00000
      8      -4.7647      2.00000
      9      -4.0465      2.00000
     10      -1.1088      0.00000
     11      -0.7915      0.00000
     12       0.2045      0.00000
     13       0.9502      0.00000
     14       4.0365      0.00000
     15       4.5953      0.00000
     16       4.6181      0.00000

 k-point    58 :      -0.3333    0.3333    0.0000
  band No.  band energies     occupation 
      1     -16.0518      2.00000
      2     -15.4926      2.00000
      3      -8.4516      2.00000
      4      -7.3869      2.00000
      5      -7.1380      2.00000
      6      -6.0901      2.00000
      7      -4.8347      2.00000
      8      -4.6205      2.00000
      9      -4.2042      2.00000
     10      -1.0652      0.00000
     11      -0.9214      0.00000
     12       0.1429      0.00000
     13       0.8057      0.00000
     14       3.9701      0.00000
     15       4.2414      0.00000
     16       4.6663      0.00000

 k-point    59 :       0.4000    0.4000    0.0000
  band No.  band energies     occupation 
      1     -15.3617      2.00000
      2     -15.1559      2.00000
      3      -8.4256      2.00000
      4      -8.3841      2.00000
      5      -7.1553      2.00000
      6      -6.3193      2.00000
      7      -5.9591      2.00000
      8      -5.1512      2.00000
      9      -3.5029      2.00000
     10      -1.2681      0.00000
     11      -0.1289      0.00000
     12       0.0740      0.00000
     13       1.2850      0.00000
     14       3.4774      0.00000
     15       5.6111      0.00000
     16       6.0687      0.00000

 k-point    60 :       0.4667    0.4000    0.0000
  band No.  band energies     occupation 
      1     -15.4601      2.00000
      2     -15.2164      2.00000
      3      -8.7035      2.00000
      4      -8.1653      2.00000
      5      -7.2045      2.00000
      6      -6.4042      2.00000
      7      -5.2298      2.00000
      8      -5.0552      2.00000
      9      -3.6506      2.00000
     10      -1.0810      0.00000
     11      -0.4287      0.00000
     12       0.3853      0.00000
     13       1.0232      0.00000
     14       3.2939      0.00000
     15       5.6542      0.00000
     16       5.6572      0.00000

 k-point    61 :      -0.4667    0.4000    0.0000
  band No.  band energies     occupation 
      1     -15.5904      2.00000
      2     -15.2860      2.00000
      3      -8.8145      2.00000
      4      -7.9405      2.00000
      5      -7.2270      2.00000
      6      -6.3854      2.00000
      7      -5.0168      2.00000
      8      -4.6272      2.00000
      9      -3.8465      2.00000
     10      -1.0615      0.00000
     11      -0.6264      0.00000
     12       0.5360      0.00000
     13       0.9475      0.00000
     14       3.3385      0.00000
     15       4.9332      0.00000
     16       5.0128      0.00000

 k-point    62 :      -0.4000    0.4000    0.0000
  band No.  band energies     occupation 
      1     -15.7298      2.00000
      2     -15.3507      2.00000
      3      -8.7543      2.00000
      4      -7.7654      2.00000
      5      -7.2055      2.00000
      6      -6.2902      2.00000
      7      -4.9963      2.00000
      8      -4.3656      2.00000
      9      -4.0915      2.00000
     10      -1.0944      0.00000
     11      -0.7293      0.00000
     12       0.4728      0.00000
     13       0.9486      0.00000
     14       3.6103      0.00000
     15       4.6202      0.00000
     16       4.6510      0.00000

 k-point    63 :       0.4667    0.4667    0.0000
  band No.  band energies     occupation 
      1     -15.4919      2.00000
      2     -15.2435      2.00000
      3      -8.9086      2.00000
      4      -8.0537      2.00000
      5      -7.2800      2.00000
      6      -6.4131      2.00000
      7      -5.0748      2.00000
      8      -4.5692      2.00000
      9      -3.7399      2.00000
     10      -1.0550      0.00000
     11      -0.5263      0.00000
     12       0.7235      0.00000
     13       0.8651      0.00000
     14       3.0122      0.00000
     15       5.0515      0.00000
     16       5.2442      0.00000

 k-point    64 :      -0.4667    0.4667    0.0000
  band No.  band energies     occupation 
      1     -15.5379      2.00000
      2     -15.2683      2.00000
      3      -8.9470      2.00000
      4      -7.9751      2.00000
      5      -7.2885      2.00000
      6      -6.3936      2.00000
      7      -5.0747      2.00000
      8      -4.2331      2.00000
      9      -3.9073      2.00000
     10      -1.0794      0.00000
     11      -0.5764      0.00000
     12       0.6440      0.00000
     13       1.0148      0.00000
     14       3.0199      0.00000
     15       4.7119      0.00000
     16       4.9843      0.00000


--------------------------------------------------------------------------------------------------------


 soft charge-density along one line, spin component           1
         0         1         2         3         4         5         6         7         8         9
 total charge-density along one line
 
 pseudopotential strength for first ion, spin component:           1
 -9.935   0.000   0.000   0.000   0.000   0.000   0.000   0.000  -0.000   0.000   0.097   0.000  -0.000   0.000  -0.000   0.000
  0.000   0.000  -9.935   0.000  -0.000   0.000  -0.000   0.000   0.000   0.000  -0.000   0.000   0.097   0.000   0.000   0.000
  0.000   0.000  -0.000   0.000  -9.914   0.000   0.000   0.000  -0.000   0.000  -0.000   0.000   0.000   0.000   0.095   0.000
  0.000   0.000  -0.000   0.000   0.000   0.000  -9.935   0.000   0.000   0.000  -0.000   0.000   0.000   0.000  -0.000   0.000
 -0.000   0.000   0.000   0.000  -0.000   0.000   0.000   0.000  -9.935   0.000   0.000   0.000  -0.000   0.000   0.000   0.000
  0.097   0.000  -0.000   0.000  -0.000   0.000  -0.000   0.000   0.000   0.000   0.098   0.000   0.000   0.000   0.000   0.000
 -0.000   0.000   0.097   0.000   0.000   0.000   0.000   0.000  -0.000   0.000   0.000   0.000   0.098   0.000  -0.000   0.000
 -0.000   0.000   0.000   0.000   0.095   0.000  -0.000   0.000   0.000   0.000   0.000   0.000  -0.000   0.000   0.098   0.000
 -0.000   0.000   0.000   0.000  -0.000   0.000   0.097   0.000  -0.000   0.000   0.000   0.000  -0.000   0.000   0.000   0.000
  0.000   0.000  -0.000   0.000   0.000   0.000  -0.000   0.000   0.097   0.000  -0.000   0.000   0.000   0.000  -0.000   0.000
  0.000   0.000   0.000   0.000  -0.005   0.000  -0.000   0.000  -0.000   0.000  -0.000   0.000  -0.000   0.000   0.000   0.000
 -0.000   0.000  -0.000   0.000   0.001   0.000   0.000   0.000   0.000   0.000   0.000   0.000   0.000   0.000  -0.000   0.000
 -0.000   0.000  -0.000   0.000  -0.000   0.000  -0.000   0.000   0.007   0.000   0.000   0.000   0.000   0.000   0.000   0.000
 -0.000   0.000   0.000   0.000  -0.000   0.000  -0.000   0.000   0.000   0.000  -0.000   0.000  -0.000   0.000   0.000   0.000
  0.007   0.000  -0.000   0.000   0.000   0.000  -0.000   0.000  -0.000   0.000   0.000   0.000  -0.000   0.000  -0.000   0.000
  0.000   0.000   0.000   0.000   0.000   0.000   0.000   0.000  -0.004   0.000  -0.000   0.000  -0.000   0.000  -0.000   0.000
  0.000   0.000  -0.000   0.000   0.000   0.000   0.000   0.000  -0.000   0.000  -0.000   0.000   0.000   0.000  -0.000   0.000
 -0.004   0.000   0.000   0.000  -0.000   0.000   0.000   0.000   0.000   0.000  -0.000   0.000  -0.000   0.000   0.000   0.000
 total augmentation occupancy for first ion, spin component:           1
  0.965   0.000   0.000   0.000  -0.000   0.607   0.000  -0.000   0.000   0.000  -0.000   0.000  -0.000   0.000   0.067   0.000
  0.000   0.909   0.000  -0.000   0.000   0.000   0.846   0.000  -0.000   0.000   0.000   0.000   0.000   0.000   0.000   0.000
  0.000   0.000   1.030   0.000  -0.000  -0.000   0.000   0.504   0.000   0.000   0.114  -0.019   0.000   0.000  -0.000   0.000
  0.000  -0.000   0.000   0.909   0.000  -0.000  -0.000   0.000   0.846   0.000   0.000   0.000   0.000  -0.000   0.000   0.000
 -0.000  -0.000  -0.000   0.000   0.965   0.000  -0.000   0.000   0.000   0.607   0.000  -0.000   0.067   0.000  -0.000  -0.007
  0.607   0.000  -0.000   0.000   0.000   0.689   0.000  -0.000   0.000   0.000  -0.000   0.000  -0.000   0.000   0.138   0.000
  0.000   0.846   0.000  -0.000   0.000   0.000   1.094   0.000  -0.000   0.000   0.000   0.000  -0.000   0.000   0.000   0.000
 -0.000   0.000   0.504   0.000   0.000  -0.000   0.000   0.481   0.000   0.000   0.058  -0.021   0.000  -0.000  -0.000  -0.000
  0.000  -0.000   0.000   0.846   0.000   0.000  -0.000   0.000   1.094   0.000   0.000   0.000   0.000  -0.000   0.000   0.000
  0.000   0.000   0.000   0.000   0.607   0.000   0.000   0.000   0.000   0.689   0.000  -0.000   0.138   0.000  -0.000  -0.023
 -0.000   0.000   0.114   0.000   0.000  -0.000   0.000   0.058   0.000   0.000   1.212  -0.187   0.000   0.000  -0.000  -0.000
  0.000   0.000  -0.019   0.000  -0.000   0.000   0.000  -0.021   0.000  -0.000  -0.187   0.042  -0.000   0.000   0.000   0.000
 -0.000   0.000   0.000   0.000   0.067  -0.000   0.000   0.000   0.000   0.138   0.000  -0.000   0.218   0.000  -0.000  -0.033
  0.000   0.000   0.000  -0.000   0.000   0.000   0.000  -0.000  -0.000   0.000   0.000   0.000   0.000   0.266   0.000   0.000
  0.067   0.000  -0.000  -0.000  -0.000   0.138   0.000  -0.000  -0.000  -0.000  -0.000   0.000  -0.000   0.000   0.218   0.000
  0.000  -0.000   0.000   0.000  -0.007   0.000   0.000  -0.000   0.000  -0.023  -0.000   0.000  -0.033   0.000   0.000   0.005
  0.000  -0.000  -0.000   0.000   0.000   0.000  -0.000   0.000   0.000   0.000   0.000   0.000   0.000  -0.039   0.000   0.000
 -0.007   0.000  -0.000   0.000   0.000  -0.023   0.000   0.000   0.000   0.000   0.000  -0.000   0.000   0.000  -0.033  -0.000


------------------------ aborting loop because EDIFF is reached ----------------------------------------


    CHARGE:  cpu time    0.19: real time    0.19
    FORLOC:  cpu time    0.01: real time    0.01
    FORNL :  cpu time    0.60: real time    0.60
    STRESS:  cpu time    1.82: real time    1.82
    FORCOR:  cpu time    0.07: real time    0.07
    FORHAR:  cpu time    0.02: real time    0.02
    MIXING:  cpu time    0.00: real time    0.00
    OFIELD:  cpu time    0.00: real time    0.00

 ---------------------------------------------------------------------------------------------

         DFTD3 V3.0 Rev 1        
 Edisp (eV)   -0.49551

 E6    (eV) :    -0.2039
 E8    (eV) :    -0.2916
 % E8        : 58.85
    FORVDW:  cpu time    0.02: real time    0.06

  FORCE on cell =-STRESS in cart. coord.  units (eV):
  Direction    XX          YY          ZZ          XY          YZ          ZX
  --------------------------------------------------------------------------------------
  Alpha Z    13.45459    13.45459    13.45459
  Ewald    4354.90984  4354.90750 -4922.24449    -0.00203     0.00000    -0.00000
  Hartree  4447.78700  4447.78653 -4409.51022    -0.00041     0.00000    -0.00000
  E(xc)     -70.34706   -70.34703   -70.95890     0.00002    -0.00000     0.00000
  Local   -9084.34957 -9084.34703  9044.01189     0.00220     0.00000    -0.00000
  n-local   126.42901   126.71006   131.78967    -0.08130     0.00001     0.00001
  augment   -25.56024   -25.56016   -26.67399     0.00007    -0.00000     0.00000
  Kinetic   232.99173   241.67585   240.21406    -2.50662     0.00000     0.00000
  Fock        0.00000     0.00000     0.00000     0.00000     0.00000     0.00000
  vdW        -0.55483    -0.55483    -0.12302     0.00000     0.00000    -0.00000
  -------------------------------------------------------------------------------------
  Total      -0.75696    -0.75709    -0.04042    -0.00011     0.00000     0.00000
  in kB      -5.50367    -5.50456    -0.29387    -0.00077     0.00000     0.00000
  external pressure =       -3.77 kB  Pullay stress =        0.00 kB


 VOLUME and BASIS-vectors are now :
 -----------------------------------------------------------------------------
  energy-cutoff  :      450.00
  volume of cell :      220.36
      direct lattice vectors                 reciprocal lattice vectors
     3.190299988  0.000000000  0.000000000     0.313450147  0.180970527  0.000000000
    -1.595149994  2.762880835  0.000000000     0.000000000  0.361941053  0.000000000
     0.000000000  0.000000000 25.000000000     0.000000000  0.000000000  0.040000000

  length of vectors
     3.190299988  3.190299988 25.000000000     0.361941053  0.361941053  0.040000000


 FORCES acting on ions
    electron-ion (+dipol)            ewald-force                    non-local-force                 convergence-correction
 -----------------------------------------------------------------------------------------------
   -.911E-03 0.527E-03 -.417E-06   0.992E-03 -.573E-03 0.733E-06   0.269E-03 -.155E-03 0.000E+00   0.278E-05 -.160E-05 -.831E-06
   0.497E-03 -.302E-03 -.570E+03   -.496E-03 0.286E-03 0.574E+03   -.181E-03 0.105E-03 -.472E+01   0.681E-05 -.393E-05 -.694E-02
   0.497E-03 -.302E-03 0.570E+03   -.496E-03 0.286E-03 -.574E+03   -.181E-03 0.105E-03 0.472E+01   0.681E-05 -.393E-05 0.694E-02
 -----------------------------------------------------------------------------------------------
   0.829E-04 -.766E-04 0.255E-04   -.914E-14 -.999E-15 0.000E+00   -.936E-04 0.540E-04 0.000E+00   0.164E-04 -.947E-05 -.200E-05
 
 
 POSITION                                       TOTAL-FORCE (eV/Angst)
 -----------------------------------------------------------------------------------
      1.59513      0.92097     11.15925         0.000348     -0.000201      0.000000
      0.00000      1.84192     12.71818        -0.000174      0.000100      0.001780
      0.00000      1.84192      9.60032        -0.000174      0.000100     -0.001780
 -----------------------------------------------------------------------------------
    total drift:                                0.000006     -0.000032      0.000024


--------------------------------------------------------------------------------------------------------



  FREE ENERGIE OF THE ION-ELECTRON SYSTEM (eV)
  ---------------------------------------------------
  free  energy   TOTEN  =       -22.29373814 eV

  energy  without entropy=      -22.29373814  energy(sigma->0) =      -22.29373814
 
 d Force = 0.1191389E-03[-0.872E-05, 0.247E-03]  d Energy = 0.1367685E-03-0.176E-04
 d Force =-0.2810415E+01[-0.281E+01,-0.281E+01]  d Ewald  =-0.2810415E+01 0.185E-06


--------------------------------------------------------------------------------------------------------


    POTLOK:  cpu time    0.09: real time    0.09


--------------------------------------------------------------------------------------------------------


 stress matrix after NEB project (eV)
     -0.75696     -0.00011      0.00000
     -0.00011     -0.75709      0.00000
      0.00000      0.00000     -0.04042
  FORCES: max atom, RMS     0.001791    0.001481
  FORCE total and by dimension    0.002565    0.001780
  Stress total and by dimension    1.071358    0.757087


--------------------------------------------------------------------------------------------------------


  
 reached required accuracy - stopping structural energy minimisation
     LOOP+:  cpu time   13.49: real time   18.28
    4ORBIT:  cpu time    0.00: real time    0.00

 total amount of memory used by VASP on root node    67781. kBytes
========================================================================

   base      :      30000. kBytes
   nonlr-proj:        993. kBytes
   fftplans  :       6463. kBytes
   grid      :      10160. kBytes
   one-center:         46. kBytes
   wavefun   :      20119. kBytes
 
  
  
 General timing and accounting informations for this job:
 ========================================================
  
                  Total CPU time used (sec):       70.461
                            User time (sec):       70.226
                          System time (sec):        0.235
                         Elapsed time (sec):       99.431
  
                   Maximum memory used (kb):       99488.
                   Average memory used (kb):           0.
  
                          Minor page faults:        93016
                          Major page faults:            0
                 Voluntary context switches:          531
